# LAMMPS data file written by OVITO Pro 3.10.5

171 atoms
5 atom types

0.0 12.3500001855 xlo xhi
0.0 12.8339988918 ylo yhi
0.0 21.700000041 zlo zhi

Masses

1 12.0107  # C
2 15.9994  # O
3 1.00794  # H
4 22.9898  # Na
5 35.453   # Cl

Atoms  # full

1 1 1 0.0 0.618 0.356 7.5
2 1 1 0.0 1.852 3.921 7.5
3 1 1 0.0 1.852 2.495 7.5
4 1 1 0.0 0.618 1.782 7.5
5 1 1 0.0 0.618 0.356 14.199999
6 1 1 0.0 1.852 3.921 14.199999
7 1 1 0.0 1.852 2.495 14.199999
8 1 1 0.0 0.618 1.782 14.199999
9 1 1 0.0 0.618 4.634 7.5
10 1 1 0.0 1.852 8.199999 7.5
11 1 1 0.0 1.852 6.774 7.5
12 1 1 0.0 0.618 6.06 7.5
13 1 1 0.0 0.618 4.634 14.199999
14 1 1 0.0 1.852 8.199999 14.199999
15 1 1 0.0 1.852 6.774 14.199999
16 1 1 0.0 0.618 6.06 14.199999
17 1 1 0.0 0.618 8.911999 7.5
18 1 1 0.0 1.852 12.477001 7.5
19 1 1 0.0 1.852 11.051 7.5
20 1 1 0.0 0.618 10.338 7.5
21 1 1 0.0 0.618 8.911999 14.199999
22 1 1 0.0 1.852 12.477001 14.199999
23 1 1 0.0 1.852 11.051 14.199999
24 1 1 0.0 0.618 10.338 14.199999
25 1 1 0.0 3.088 0.356 7.5
26 1 1 0.0 4.322 3.921 7.5
27 1 1 0.0 4.322 2.495 7.5
28 1 1 0.0 3.088 1.782 7.5
29 1 1 0.0 3.088 0.356 14.199999
30 1 1 0.0 4.322 3.921 14.199999
31 1 1 0.0 4.322 2.495 14.199999
32 1 1 0.0 3.088 1.782 14.199999
33 1 1 0.0 3.088 4.634 7.5
34 1 1 0.0 4.322 8.199999 7.5
35 1 1 0.0 4.322 6.774 7.5
36 1 1 0.0 3.088 6.06 7.5
37 1 1 0.0 3.088 4.634 14.199999
38 1 1 0.0 4.322 8.199999 14.199999
39 1 1 0.0 4.322 6.774 14.199999
40 1 1 0.0 3.088 6.06 14.199999
41 1 1 0.0 3.088 8.911999 7.5
42 1 1 0.0 4.322 12.477001 7.5
43 1 1 0.0 4.322 11.051 7.5
44 1 1 0.0 3.088 10.338 7.5
45 1 1 0.0 3.088 8.911999 14.199999
46 1 1 0.0 4.322 12.477001 14.199999
47 1 1 0.0 4.322 11.051 14.199999
48 1 1 0.0 3.088 10.338 14.199999
49 1 1 0.0 5.558 0.356 7.5
50 1 1 0.0 6.793 3.921 7.5
51 1 1 0.0 6.793 2.495 7.5
52 1 1 0.0 5.558 1.782 7.5
53 1 1 0.0 5.558 0.356 14.199999
54 1 1 0.0 6.793 3.921 14.199999
55 1 1 0.0 6.793 2.495 14.199999
56 1 1 0.0 5.558 1.782 14.199999
57 1 1 0.0 5.558 4.634 7.5
58 1 1 0.0 6.793 8.199999 7.5
59 1 1 0.0 6.793 6.774 7.5
60 1 1 0.0 5.558 6.06 7.5
61 1 1 0.0 5.558 4.634 14.199999
62 1 1 0.0 6.793 8.199999 14.199999
63 1 1 0.0 6.793 6.774 14.199999
64 1 1 0.0 5.558 6.06 14.199999
65 1 1 0.0 5.558 8.911999 7.5
66 1 1 0.0 6.793 12.477001 7.5
67 1 1 0.0 6.793 11.051 7.5
68 1 1 0.0 5.558 10.338 7.5
69 1 1 0.0 5.558 8.911999 14.199999
70 1 1 0.0 6.793 12.477001 14.199999
71 1 1 0.0 6.793 11.051 14.199999
72 1 1 0.0 5.558 10.338 14.199999
73 1 1 0.0 8.028 0.356 7.5
74 1 1 0.0 9.262999 3.921 7.5
75 1 1 0.0 9.262999 2.495 7.5
76 1 1 0.0 8.028 1.782 7.5
77 1 1 0.0 8.028 0.356 14.199999
78 1 1 0.0 9.262999 3.921 14.199999
79 1 1 0.0 9.262999 2.495 14.199999
80 1 1 0.0 8.028 1.782 14.199999
81 1 1 0.0 8.028 4.634 7.5
82 1 1 0.0 9.262999 8.199999 7.5
83 1 1 0.0 9.262999 6.774 7.5
84 1 1 0.0 8.028 6.06 7.5
85 1 1 0.0 8.028 4.634 14.199999
86 1 1 0.0 9.262999 8.199999 14.199999
87 1 1 0.0 9.262999 6.774 14.199999
88 1 1 0.0 8.028 6.06 14.199999
89 1 1 0.0 8.028 8.911999 7.5
90 1 1 0.0 9.262999 12.477001 7.5
91 1 1 0.0 9.262999 11.051 7.5
92 1 1 0.0 8.028 10.338 7.5
93 1 1 0.0 8.028 8.911999 14.199999
94 1 1 0.0 9.262999 12.477001 14.199999
95 1 1 0.0 9.262999 11.051 14.199999
96 1 1 0.0 8.028 10.338 14.199999
97 1 1 0.0 10.498 0.356 7.5
98 1 1 0.0 11.732 3.921 7.5
99 1 1 0.0 11.732 2.495 7.5
100 1 1 0.0 10.498 1.782 7.5
101 1 1 0.0 10.498 0.356 14.199999
102 1 1 0.0 11.732 3.921 14.199999
103 1 1 0.0 11.732 2.495 14.199999
104 1 1 0.0 10.498 1.782 14.199999
105 1 1 0.0 10.498 4.634 7.5
106 1 1 0.0 11.732 8.199999 7.5
107 1 1 0.0 11.732 6.774 7.5
108 1 1 0.0 10.498 6.06 7.5
109 1 1 0.0 10.498 4.634 14.199999
110 1 1 0.0 11.732 8.199999 14.199999
111 1 1 0.0 11.732 6.774 14.199999
112 1 1 0.0 10.498 6.06 14.199999
113 1 1 0.0 10.498 8.911999 7.5
114 1 1 0.0 11.732 12.477001 7.5
115 1 1 0.0 11.732 11.051 7.5
116 1 1 0.0 10.498 10.338 7.5
117 1 1 0.0 10.498 8.911999 14.199999
118 1 1 0.0 11.732 12.477001 14.199999
119 1 1 0.0 11.732 11.051 14.199999
120 1 1 0.0 10.498 10.338 14.199999
121 1 2 0.0 3.6647993618 3.091967 10.533122
122 1 3 0.0 4.2873193618 3.858603 10.710426
123 1 3 0.0 4.0448233618 2.290264 10.862163
124 1 2 0.0 6.4576554342 11.5814248918 11.033377
125 1 3 0.0 6.6403034342 10.6229548918 10.978916
126 1 3 0.0 5.9617454342 11.7899108918 11.815794
127 1 2 0.0 8.7552707329 0.2495791082 11.002646
128 1 3 0.0 8.9723487329 0.8301891082 10.194458
129 1 3 0.0 7.7982687329 12.809526 10.821297
130 1 2 0.0 9.6794423618 10.5679988918 11.03289
131 1 3 0.0 9.2445123618 11.4798778918 10.901365
132 1 3 0.0 10.6471673618 10.7719388918 11.015168
133 1 2 0.0 0.1686573618 11.5608868918 10.790016
134 1 3 0.0 12.1714825473 12.4325668918 10.470746
135 1 3 0.0 0.5526533618 11.8827658918 11.597018
136 1 2 0.0 2.9891118052 10.1297112163 11.189702
137 1 3 0.0 2.5674238052 10.3567482163 10.328152
138 1 3 0.0 3.3070888052 9.2454202163 11.002839
139 1 2 0.0 5.5512203618 4.9011838918 11.198374
140 1 3 0.0 6.3209893618 4.2323168918 11.366702
141 1 3 0.0 5.9065033618 5.5186368918 10.477913
142 1 2 0.0 0.4103969908 7.787032 11.084107
143 1 3 0.0 0.6170099908 8.632499 10.6505
144 1 3 0.0 1.3403329908 7.329691 11.017144
145 1 2 0.0 10.1837503618 6.7907505673 10.773203
146 1 3 0.0 9.7971063618 7.0864295673 9.960976
147 1 3 0.0 11.0774143618 7.1429155673 10.920091
148 1 2 0.0 7.4666959908 8.9796271082 10.845692
149 1 3 0.0 7.7009569908 8.7249841082 11.736367
150 1 3 0.0 8.1926999908 9.4687641082 10.500866
151 1 2 0.0 10.1858229184 4.2201671082 10.88998
152 1 3 0.0 9.9766909184 5.1630261082 10.746341
153 1 3 0.0 10.5468229184 3.9188411082 10.04175
154 1 2 0.0 4.9553418052 7.8308618918 10.793926
155 1 3 0.0 5.2631778052 7.4211868918 11.574095
156 1 3 0.0 5.6653578052 8.4655338918 10.571148
157 1 2 0.0 2.5757623618 5.9309358918 10.734156
158 1 3 0.0 3.5061823618 6.1014248918 10.87658
159 1 3 0.0 2.6183313618 5.5900408918 9.832925
160 1 2 0.0 11.8212297329 1.2408447837 10.749267
161 1 3 0.0 0.1178115473 2.0065447837 10.784069
162 1 3 0.0 11.0520747329 1.4644427837 11.338428
163 1 2 0.0 1.0536575473 3.4818676755 10.803281
164 1 3 0.0 0.9245935473 3.9997656755 11.587879
165 1 3 0.0 1.9990325473 3.3778026755 10.696394
166 1 2 0.0 7.6341045473 3.1340861082 11.036237
167 1 3 0.0 7.7383315473 2.3248771082 11.53315
168 1 3 0.0 8.5558045473 3.5428911082 10.959803
169 1 2 0.0 3.9574530631 0.0647501082 11.111443
170 1 3 0.0 4.4105030631 12.765695 10.28902
171 1 3 0.0 3.1088120631 12.375078 11.09628
