# LAMMPS data file - initial structure from stage-1 AIMD (1_aimd_and_frames/trajectory-input.xyz); cell from aimd.inp

321 atoms
5 atom types

0.0 12.3500001855 xlo xhi
0.0 12.8339988918 ylo yhi
0.0 31.7499986937 zlo zhi

Masses

1 12.0107  # C
2 15.9994  # O
3 1.00794  # H
4 22.9898  # Na
5 35.453   # Cl

Atoms  # full

1 1 1 0.0 0.6180000000 0.3560000000 7.5000000000
2 1 1 0.0 1.8520000000 3.9210000000 7.5000000000
3 1 1 0.0 1.8520000000 2.4950000000 7.5000000000
4 1 1 0.0 0.6180000000 1.7820000000 7.5000000000
5 1 1 0.0 0.6180000000 0.3560000000 24.2500000000
6 1 1 0.0 1.8520000000 3.9210000000 24.2500000000
7 1 1 0.0 1.8520000000 2.4950000000 24.2500000000
8 1 1 0.0 0.6180000000 1.7820000000 24.2500000000
9 1 1 0.0 0.6180000000 4.6340000000 7.5000000000
10 1 1 0.0 1.8520000000 8.2000000000 7.5000000000
11 1 1 0.0 1.8520000000 6.7740000000 7.5000000000
12 1 1 0.0 0.6180000000 6.0600000000 7.5000000000
13 1 1 0.0 0.6180000000 4.6340000000 24.2500000000
14 1 1 0.0 1.8520000000 8.2000000000 24.2500000000
15 1 1 0.0 1.8520000000 6.7740000000 24.2500000000
16 1 1 0.0 0.6180000000 6.0600000000 24.2500000000
17 1 1 0.0 0.6180000000 8.9120000000 7.5000000000
18 1 1 0.0 1.8520000000 12.4770000000 7.5000000000
19 1 1 0.0 1.8520000000 11.0510000000 7.5000000000
20 1 1 0.0 0.6180000000 10.3380000000 7.5000000000
21 1 1 0.0 0.6180000000 8.9120000000 24.2500000000
22 1 1 0.0 1.8520000000 12.4770000000 24.2500000000
23 1 1 0.0 1.8520000000 11.0510000000 24.2500000000
24 1 1 0.0 0.6180000000 10.3380000000 24.2500000000
25 1 1 0.0 3.0880000000 0.3560000000 7.5000000000
26 1 1 0.0 4.3220000000 3.9210000000 7.5000000000
27 1 1 0.0 4.3220000000 2.4950000000 7.5000000000
28 1 1 0.0 3.0880000000 1.7820000000 7.5000000000
29 1 1 0.0 3.0880000000 0.3560000000 24.2500000000
30 1 1 0.0 4.3220000000 3.9210000000 24.2500000000
31 1 1 0.0 4.3220000000 2.4950000000 24.2500000000
32 1 1 0.0 3.0880000000 1.7820000000 24.2500000000
33 1 1 0.0 3.0880000000 4.6340000000 7.5000000000
34 1 1 0.0 4.3220000000 8.2000000000 7.5000000000
35 1 1 0.0 4.3220000000 6.7740000000 7.5000000000
36 1 1 0.0 3.0880000000 6.0600000000 7.5000000000
37 1 1 0.0 3.0880000000 4.6340000000 24.2500000000
38 1 1 0.0 4.3220000000 8.2000000000 24.2500000000
39 1 1 0.0 4.3220000000 6.7740000000 24.2500000000
40 1 1 0.0 3.0880000000 6.0600000000 24.2500000000
41 1 1 0.0 3.0880000000 8.9120000000 7.5000000000
42 1 1 0.0 4.3220000000 12.4770000000 7.5000000000
43 1 1 0.0 4.3220000000 11.0510000000 7.5000000000
44 1 1 0.0 3.0880000000 10.3380000000 7.5000000000
45 1 1 0.0 3.0880000000 8.9120000000 24.2500000000
46 1 1 0.0 4.3220000000 12.4770000000 24.2500000000
47 1 1 0.0 4.3220000000 11.0510000000 24.2500000000
48 1 1 0.0 3.0880000000 10.3380000000 24.2500000000
49 1 1 0.0 5.5580000000 0.3560000000 7.5000000000
50 1 1 0.0 6.7930000000 3.9210000000 7.5000000000
51 1 1 0.0 6.7930000000 2.4950000000 7.5000000000
52 1 1 0.0 5.5580000000 1.7820000000 7.5000000000
53 1 1 0.0 5.5580000000 0.3560000000 24.2500000000
54 1 1 0.0 6.7930000000 3.9210000000 24.2500000000
55 1 1 0.0 6.7930000000 2.4950000000 24.2500000000
56 1 1 0.0 5.5580000000 1.7820000000 24.2500000000
57 1 1 0.0 5.5580000000 4.6340000000 7.5000000000
58 1 1 0.0 6.7930000000 8.2000000000 7.5000000000
59 1 1 0.0 6.7930000000 6.7740000000 7.5000000000
60 1 1 0.0 5.5580000000 6.0600000000 7.5000000000
61 1 1 0.0 5.5580000000 4.6340000000 24.2500000000
62 1 1 0.0 6.7930000000 8.2000000000 24.2500000000
63 1 1 0.0 6.7930000000 6.7740000000 24.2500000000
64 1 1 0.0 5.5580000000 6.0600000000 24.2500000000
65 1 1 0.0 5.5580000000 8.9120000000 7.5000000000
66 1 1 0.0 6.7930000000 12.4770000000 7.5000000000
67 1 1 0.0 6.7930000000 11.0510000000 7.5000000000
68 1 1 0.0 5.5580000000 10.3380000000 7.5000000000
69 1 1 0.0 5.5580000000 8.9120000000 24.2500000000
70 1 1 0.0 6.7930000000 12.4770000000 24.2500000000
71 1 1 0.0 6.7930000000 11.0510000000 24.2500000000
72 1 1 0.0 5.5580000000 10.3380000000 24.2500000000
73 1 1 0.0 8.0280000000 0.3560000000 7.5000000000
74 1 1 0.0 9.2630000000 3.9210000000 7.5000000000
75 1 1 0.0 9.2630000000 2.4950000000 7.5000000000
76 1 1 0.0 8.0280000000 1.7820000000 7.5000000000
77 1 1 0.0 8.0280000000 0.3560000000 24.2500000000
78 1 1 0.0 9.2630000000 3.9210000000 24.2500000000
79 1 1 0.0 9.2630000000 2.4950000000 24.2500000000
80 1 1 0.0 8.0280000000 1.7820000000 24.2500000000
81 1 1 0.0 8.0280000000 4.6340000000 7.5000000000
82 1 1 0.0 9.2630000000 8.2000000000 7.5000000000
83 1 1 0.0 9.2630000000 6.7740000000 7.5000000000
84 1 1 0.0 8.0280000000 6.0600000000 7.5000000000
85 1 1 0.0 8.0280000000 4.6340000000 24.2500000000
86 1 1 0.0 9.2630000000 8.2000000000 24.2500000000
87 1 1 0.0 9.2630000000 6.7740000000 24.2500000000
88 1 1 0.0 8.0280000000 6.0600000000 24.2500000000
89 1 1 0.0 8.0280000000 8.9120000000 7.5000000000
90 1 1 0.0 9.2630000000 12.4770000000 7.5000000000
91 1 1 0.0 9.2630000000 11.0510000000 7.5000000000
92 1 1 0.0 8.0280000000 10.3380000000 7.5000000000
93 1 1 0.0 8.0280000000 8.9120000000 24.2500000000
94 1 1 0.0 9.2630000000 12.4770000000 24.2500000000
95 1 1 0.0 9.2630000000 11.0510000000 24.2500000000
96 1 1 0.0 8.0280000000 10.3380000000 24.2500000000
97 1 1 0.0 10.4980000000 0.3560000000 7.5000000000
98 1 1 0.0 11.7320000000 3.9210000000 7.5000000000
99 1 1 0.0 11.7320000000 2.4950000000 7.5000000000
100 1 1 0.0 10.4980000000 1.7820000000 7.5000000000
101 1 1 0.0 10.4980000000 0.3560000000 24.2500000000
102 1 1 0.0 11.7320000000 3.9210000000 24.2500000000
103 1 1 0.0 11.7320000000 2.4950000000 24.2500000000
104 1 1 0.0 10.4980000000 1.7820000000 24.2500000000
105 1 1 0.0 10.4980000000 4.6340000000 7.5000000000
106 1 1 0.0 11.7320000000 8.2000000000 7.5000000000
107 1 1 0.0 11.7320000000 6.7740000000 7.5000000000
108 1 1 0.0 10.4980000000 6.0600000000 7.5000000000
109 1 1 0.0 10.4980000000 4.6340000000 24.2500000000
110 1 1 0.0 11.7320000000 8.2000000000 24.2500000000
111 1 1 0.0 11.7320000000 6.7740000000 24.2500000000
112 1 1 0.0 10.4980000000 6.0600000000 24.2500000000
113 1 1 0.0 10.4980000000 8.9120000000 7.5000000000
114 1 1 0.0 11.7320000000 12.4770000000 7.5000000000
115 1 1 0.0 11.7320000000 11.0510000000 7.5000000000
116 1 1 0.0 10.4980000000 10.3380000000 7.5000000000
117 1 1 0.0 10.4980000000 8.9120000000 24.2500000000
118 1 1 0.0 11.7320000000 12.4770000000 24.2500000000
119 1 1 0.0 11.7320000000 11.0510000000 24.2500000000
120 1 1 0.0 10.4980000000 10.3380000000 24.2500000000
121 2 2 -0.834 0.6420024115 10.1600155148 18.3046000000
122 2 3 0.417 0.9840024115 9.3500155148 17.8806000000
123 2 3 0.417 1.4270024115 10.5120155148 18.6912000000
124 3 2 -0.834 0.5610029680 7.1710166230 20.7534000000
125 3 3 0.417 0.0020029680 7.9790166230 20.8411000000
126 3 3 0.417 12.3280031535 6.4270166230 21.1131000000
127 4 2 -0.834 4.0550022260 0.7500188394 17.8385000000
128 4 3 0.417 4.7610022260 1.2150188394 17.4797000000
129 4 3 0.417 3.1950022260 0.9940188394 17.3887000000
130 5 2 -0.834 0.3270025970 6.0310188394 13.4051000000
131 5 3 0.417 1.1260025970 6.6440188394 13.7292000000
132 5 3 0.417 0.5870025970 5.9820188394 12.4567000000
133 6 2 -0.834 1.8610020405 1.0710232722 16.5535000000
134 6 3 0.417 1.6340020405 1.8150232722 15.9284000000
135 6 3 0.417 1.1230020405 0.4580232722 16.6496000000
136 7 2 -0.834 10.2020029680 0.3980166230 18.7096000000
137 7 3 0.417 10.7920029680 0.1480166230 17.9840000000
138 7 3 0.417 9.2750029680 0.2280166230 18.3785000000
139 8 2 -0.834 5.5330029680 3.5920177312 12.8633000000
140 8 3 0.417 5.0290029680 2.7870177312 13.1220000000
141 8 3 0.417 6.4480029680 3.4680177312 13.2229000000
142 9 2 -0.834 8.2190029680 3.4150177312 13.6775000000
143 9 3 0.417 8.4980029680 3.0290177312 12.7685000000
144 9 3 0.417 8.2810029680 2.6510177312 14.3516000000
145 10 2 -0.834 8.6000033390 0.1070188394 10.6735000000
146 10 3 0.417 8.5340033390 12.7880177312 11.6038000000
147 10 3 0.417 7.7280033390 12.7580177312 10.3173000000
148 11 2 -0.834 9.5740018550 3.2230166230 18.8490000000
149 11 3 0.417 10.4730018550 3.6110166230 19.1784000000
150 11 3 0.417 9.8550018550 2.2880166230 18.8798000000
151 12 2 -0.834 5.5080024115 5.3230177312 17.0152000000
152 12 3 0.417 5.2070024115 5.6710177312 17.9129000000
153 12 3 0.417 4.8640024115 5.6950177312 16.4359000000
154 13 2 -0.834 6.5300024115 4.1760155148 10.4757000000
155 13 3 0.417 6.0310024115 3.8530155148 11.3088000000
156 13 3 0.417 6.7730024115 5.0550155148 10.6861000000
157 14 2 -0.834 9.7080016695 6.9730199476 10.4729000000
158 14 3 0.417 9.8800016695 7.7380199476 11.0872000000
159 14 3 0.417 10.1660016695 6.1770199476 10.8816000000
160 15 2 -0.834 6.4570024115 2.2820199476 17.3728000000
161 15 3 0.417 6.8390024115 2.4360199476 18.2831000000
162 15 3 0.417 6.2280024115 3.2360199476 17.1249000000
163 16 2 -0.834 5.5480027825 12.0240188394 15.6861000000
164 16 3 0.417 5.0580027825 12.4560188394 16.4425000000
165 16 3 0.417 4.8940027825 12.0290188394 14.9697000000
166 17 2 -0.834 3.5010022260 11.6240166230 13.7951000000
167 17 3 0.417 3.5420022260 11.2330166230 12.8723000000
168 17 3 0.417 2.6040022260 11.2910166230 14.1012000000
169 18 2 -0.834 10.8080031535 11.1030155148 10.9240000000
170 18 3 0.417 10.2920031535 10.4620155148 11.4052000000
171 18 3 0.417 10.0900031535 11.5420155148 10.4490000000
172 19 2 -0.834 2.5820020405 1.1720199476 10.5148000000
173 19 3 0.417 2.7280020405 1.4280199476 11.4771000000
174 19 3 0.417 1.6330020405 0.9440199476 10.4050000000
175 20 2 -0.834 5.3250024115 9.3120188394 16.5485000000
176 20 3 0.417 5.4290024115 10.2440188394 16.3371000000
177 20 3 0.417 5.4140024115 8.8640188394 15.7410000000
178 21 2 -0.834 9.3920022260 8.7730166230 18.6159000000
179 21 3 0.417 9.7910022260 7.9720166230 18.2003000000
180 21 3 0.417 9.2900022260 9.3740166230 17.8453000000
181 22 2 -0.834 12.0030027825 12.1530177312 16.8989000000
182 22 3 0.417 11.4050027825 11.6910177312 16.2507000000
183 22 3 0.417 12.3030027825 11.3530177312 17.4799000000
184 23 2 -0.834 4.0740016695 3.1280210558 21.0285000000
185 23 3 0.417 3.3350016695 2.4180210558 21.1662000000
186 23 3 0.417 3.7900016695 3.8180210558 21.6845000000
187 24 2 -0.834 4.3940018550 6.9460210558 10.5920000000
188 24 3 0.417 4.2070018550 6.1370210558 11.1153000000
189 24 3 0.417 5.4040018550 6.9080210558 10.5251000000
190 25 2 -0.834 0.3280020405 3.1660199476 18.6211000000
191 25 3 0.417 0.1740020405 2.6310199476 19.4528000000
192 25 3 0.417 0.6690020405 2.5700199476 17.8903000000
193 26 2 -0.834 3.7390025970 5.3020199476 14.3748000000
194 26 3 0.417 4.4560025970 4.7640199476 14.0039000000
195 26 3 0.417 3.8250025970 6.1630199476 13.8960000000
196 27 2 -0.834 10.4670022260 11.8790199476 14.6683000000
197 27 3 0.417 10.4110022260 0.0060210558 14.4517000000
198 27 3 0.417 10.0980022260 11.3810199476 13.9439000000
199 28 2 -0.834 9.5610033390 9.5120155148 12.5866000000
200 28 3 0.417 8.6470033390 9.8210155148 12.8547000000
201 28 3 0.417 9.8710033390 9.1740155148 13.4645000000
202 29 2 -0.834 10.7940020405 4.7440177312 21.0018000000
203 29 3 0.417 9.8720020405 5.1410177312 20.8466000000
204 29 3 0.417 10.6700020405 3.9410177312 21.5289000000
205 30 2 -0.834 2.0110027825 7.9820155148 14.2450000000
206 30 3 0.417 2.1210027825 7.9340155148 15.1904000000
207 30 3 0.417 1.5260027825 8.8950155148 14.1563000000
208 31 2 -0.834 7.7600024115 4.5430132984 20.7369000000
209 31 3 0.417 6.9860024115 4.9880132984 20.3097000000
210 31 3 0.417 8.3140024115 4.1550132984 20.0053000000
211 32 2 -0.834 8.8110027825 2.6740188394 10.9677000000
212 32 3 0.417 8.0300027825 3.1450188394 10.5665000000
213 32 3 0.417 8.6490027825 1.6940188394 10.9352000000
214 33 2 -0.834 3.0730031535 11.6270177312 19.3888000000
215 33 3 0.417 3.8150031535 11.1280177312 19.8928000000
216 33 3 0.417 3.6160031535 12.0970177312 18.7162000000
217 34 2 -0.834 0.7940029680 10.3760177312 13.5798000000
218 34 3 0.417 12.2770031535 10.5940177312 14.0027000000
219 34 3 0.417 0.5860029680 10.4740177312 12.6371000000
220 35 2 -0.834 5.3270027825 6.0610166230 19.6845000000
221 35 3 0.417 4.6210027825 6.2780166230 20.3067000000
222 35 3 0.417 5.7960027825 6.9400166230 19.6612000000
223 36 2 -0.834 2.4640020405 8.2490155148 17.2120000000
224 36 3 0.417 2.3800020405 7.3440155148 17.6598000000
225 36 3 0.417 3.3620020405 8.5480155148 17.2825000000
226 37 2 -0.834 6.5950020405 1.9410132984 20.2305000000
227 37 3 0.417 7.0810020405 2.7030132984 20.5460000000
228 37 3 0.417 5.6790020405 2.3330132984 20.4276000000
229 38 2 -0.834 4.8200024115 8.4030199476 13.2072000000
230 38 3 0.417 3.8950024115 8.5620199476 13.5491000000
231 38 3 0.417 4.6040024115 8.2550199476 12.2819000000
232 39 2 -0.834 11.9220025970 1.2120199476 11.2318000000
233 39 3 0.417 11.5350025970 1.4410199476 10.3438000000
234 39 3 0.417 11.6740025970 0.2420199476 11.2890000000
235 40 2 -0.834 7.1490024115 7.0890177312 11.1056000000
236 40 3 0.417 7.3560024115 6.8590177312 12.0351000000
237 40 3 0.417 8.0160024115 7.0370177312 10.6601000000
238 41 2 -0.834 10.2620024115 12.1930177312 21.2659000000
239 41 3 0.417 10.2280024115 12.6320177312 20.3731000000
240 41 3 0.417 10.6030024115 11.2620177312 21.1203000000
241 42 2 -0.834 8.6760018550 4.8080155148 16.4760000000
242 42 3 0.417 7.8340018550 5.1670155148 16.8066000000
243 42 3 0.417 9.0720018550 4.3060155148 17.2415000000
244 43 2 -0.834 7.4520020405 12.1510188394 21.1864000000
245 43 3 0.417 8.3430020405 11.9510188394 21.4914000000
246 43 3 0.417 7.1390020405 0.1520199476 21.5552000000
247 44 2 -0.834 10.7630025970 4.5510177312 11.6830000000
248 44 3 0.417 10.6230025970 4.6750177312 12.6413000000
249 44 3 0.417 10.0990025970 3.8360177312 11.5137000000
250 45 2 -0.834 2.4160027825 0.7070199476 21.1491000000
251 45 3 0.417 2.7400027825 0.0490199476 20.4431000000
252 45 3 0.417 2.6980027825 0.3190199476 21.9777000000
253 46 2 -0.834 7.4230025970 12.1940166230 18.4872000000
254 46 3 0.417 7.5760025970 12.0540166230 19.4850000000
255 46 3 0.417 6.7260025970 0.0230177312 18.5578000000
256 47 2 -0.834 10.7120029680 8.1240144066 14.4319000000
257 47 3 0.417 11.2160029680 7.5520144066 13.8617000000
258 47 3 0.417 10.8690029680 7.8450144066 15.3882000000
259 48 2 -0.834 7.6710027825 12.4780177312 13.0171000000
260 48 3 0.417 7.1520027825 11.6390177312 13.0377000000
261 48 3 0.417 7.0060027825 0.3460188394 12.9503000000
262 49 2 -0.834 10.9090029680 6.9470166230 16.9037000000
263 49 3 0.417 10.3310029680 6.1450166230 16.7006000000
264 49 3 0.417 11.7800029680 6.5530166230 17.1980000000
265 50 2 -0.834 3.1640024115 1.7690166230 13.1455000000
266 50 3 0.417 2.2230024115 2.0990166230 13.3759000000
267 50 3 0.417 3.2580024115 0.9040166230 13.6373000000
268 51 2 -0.834 6.5700025970 8.5070221640 19.1761000000
269 51 3 0.417 7.5270025970 8.5750221640 19.0874000000
270 51 3 0.417 6.2430025970 8.8250221640 18.2970000000
271 52 2 -0.834 9.0480022260 10.7120132984 16.9284000000
272 52 3 0.417 8.2710022260 11.1380132984 17.2439000000
273 52 3 0.417 9.3190022260 11.1480132984 16.1146000000
274 53 2 -0.834 5.2130018550 10.1830210558 20.9330000000
275 53 3 0.417 5.9850018550 10.7440210558 21.0542000000
276 53 3 0.417 5.5720018550 9.5120210558 20.2790000000
277 54 2 -0.834 1.6660022260 9.7600177312 10.7782000000
278 54 3 0.417 1.6770022260 8.8070177312 10.5162000000
279 54 3 0.417 1.0650022260 10.2310177312 10.1623000000
280 55 2 -0.834 6.7550016695 9.9000210558 10.7174000000
281 55 3 0.417 6.6910016695 8.9440210558 10.8622000000
282 55 3 0.417 6.2710016695 9.9980210558 9.8767400000
283 56 2 -0.834 2.0440029680 4.1350232722 10.8995000000
284 56 3 0.417 2.0380029680 3.4200232722 10.2467000000
285 56 3 0.417 1.7910029680 3.6460232722 11.7180000000
286 57 2 -0.834 6.9290031535 10.1540188394 13.7259000000
287 57 3 0.417 6.9070031535 10.3650188394 14.6642000000
288 57 3 0.417 6.0140031535 9.7440188394 13.4411000000
289 58 2 -0.834 3.4660018550 7.0780155148 21.3457000000
290 58 3 0.417 3.7540018550 7.9400155148 21.7489000000
291 58 3 0.417 2.5410018550 7.2460155148 21.1767000000
292 59 2 -0.834 0.8660025970 5.9810177312 18.2263000000
293 59 3 0.417 0.6560025970 5.0530177312 18.4506000000
294 59 3 0.417 0.7770025970 6.5560177312 18.9935000000
295 60 2 -0.834 8.6030025970 1.3430210558 15.6189000000
296 60 3 0.417 7.9490025970 1.7180210558 16.2240000000
297 60 3 0.417 8.1930025970 0.5020210558 15.3645000000
298 61 2 -0.834 3.9650024115 11.6750177312 10.8387000000
299 61 3 0.417 3.3420024115 12.4180177312 10.5625000000
300 61 3 0.417 3.3960024115 10.8470177312 10.7979000000
301 62 2 -0.834 5.9830029680 0.8640199476 10.4269000000
302 62 3 0.417 5.5860029680 1.4750199476 9.7563600000
303 62 3 0.417 5.3530029680 0.1510199476 10.5171000000
304 63 2 -0.834 1.3120025970 3.2980177312 14.3591000000
305 63 3 0.417 1.9260025970 4.0390177312 14.3390000000
306 63 3 0.417 0.5230025970 3.7020177312 14.0475000000
307 64 2 -0.834 0.9080025970 7.0130166230 10.4842000000
308 64 3 0.417 12.3020027825 7.0280166230 10.2917000000
309 64 3 0.417 1.3300025970 6.2000166230 10.2495000000
310 65 2 -0.834 0.1190031535 1.7830177312 21.1109000000
311 65 3 0.417 11.8050033390 1.1030177312 21.4395000000
312 65 3 0.417 1.0210031535 1.3280177312 21.1380000000
313 66 2 -0.834 7.7007014840 6.3810177312 13.9759000000
314 66 3 0.417 8.0489014840 5.4860177312 14.0435000000
315 66 3 0.417 8.2826014840 6.7580177312 14.5918000000
316 67 2 -0.834 11.2060025970 9.3650155148 20.5175000000
317 67 3 0.417 11.7730025970 9.7650155148 19.7956000000
318 67 3 0.417 10.4650025970 9.0520155148 19.9691000000
319 68 2 -0.834 10.9800025970 1.8810166230 14.0962000000
320 68 3 0.417 10.4980025970 2.5900166230 14.5382000000
321 68 3 0.417 11.1940025970 2.0610166230 13.1842000000
